<?xml version="1.0"?>

<!-- generated on Thu Sep  1 01:01:42 2011 by SUMO sumo Version 0.12.2
<?xml version="1.0" encoding="iso-8859-1"?>

<configuration xmlns:xsi="http://www.w3.org/2001/XMLSchema-instance" xsi:noNamespaceSchemaLocation="http://sumo.sf.net/xsd/sumoConfiguration.xsd">

    <input>
        <net-file value="../simulations/radialandring/radialandring.net.xml"/>
        <route-files value="../simulations/radialandring/radialandring.rou1.xml"/>
    </input>

    <output>
        <tripinfo-output value="../simulations/radialandring/radialandring.out.tripinfo.xml"/>
    </output>

    <time>
        <end value="1"/>
    </time>

    <traci_server>
        <remote-port value="8814"/>
    </traci_server>

    <gui_only>
        <gui-settings-file value=""/>
    </gui_only>

</configuration>
-->

<tripinfos>
    <tripinfo id="t12_0" depart="12.00" departLane="11to10_0" departPos="7.60" departSpeed="0.00" departDelay="0.00" arrival="48.00" arrivalLane="10to09_0" arrivalPos="0.67" arrivalSpeed="6.84" duration="36.00" routeLength="288.43" waitSteps="3" rerouteNo="0" devices="tripinfo_t12_0" vtype="DEFAULT_VEHTYPE" vaporized=""/>
    <tripinfo id="t1_0" depart="1.00" departLane="12to04_0" departPos="7.60" departSpeed="0.00" departDelay="0.00" arrival="58.00" arrivalLane="21to22_0" arrivalPos="0.40" arrivalSpeed="13.34" duration="57.00" routeLength="683.49" waitSteps="0" rerouteNo="0" devices="tripinfo_t1_0" vtype="DEFAULT_VEHTYPE" vaporized=""/>
    <tripinfo id="t18_0" depart="18.00" departLane="21to29_0" departPos="7.60" departSpeed="0.00" departDelay="0.00" arrival="59.00" arrivalLane="04to03_0" arrivalPos="10.71" arrivalSpeed="11.12" duration="41.00" routeLength="463.57" waitSteps="0" rerouteNo="0" devices="tripinfo_t18_0" vtype="DEFAULT_VEHTYPE" vaporized=""/>
    <tripinfo id="t6_0" depart="6.00" departLane="29to04_0" departPos="7.60" departSpeed="0.00" departDelay="0.00" arrival="61.00" arrivalLane="20to28_0" arrivalPos="3.54" arrivalSpeed="13.35" duration="55.00" routeLength="686.63" waitSteps="0" rerouteNo="0" devices="tripinfo_t6_0" vtype="DEFAULT_VEHTYPE" vaporized=""/>
    <tripinfo id="t13_0" depart="13.00" departLane="30to03_0" departPos="7.60" departSpeed="0.00" departDelay="0.00" arrival="93.00" arrivalLane="03to11_0" arrivalPos="5.41" arrivalSpeed="6.61" duration="80.00" routeLength="460.68" waitSteps="35" rerouteNo="0" devices="tripinfo_t13_0" vtype="DEFAULT_VEHTYPE" vaporized=""/>
    <tripinfo id="t14_0" depart="14.00" departLane="21to29_0" departPos="7.60" departSpeed="0.00" departDelay="0.00" arrival="99.00" arrivalLane="11to19_0" arrivalPos="2.81" arrivalSpeed="6.07" duration="85.00" routeLength="982.53" waitSteps="0" rerouteNo="0" devices="tripinfo_t14_0" vtype="DEFAULT_VEHTYPE" vaporized=""/>
    <tripinfo id="t105_0" depart="105.00" departLane="07to26_0" departPos="7.60" departSpeed="0.00" departDelay="0.00" arrival="106.00" arrivalLane="07to26_0" arrivalPos="10.05" arrivalSpeed="2.45" duration="1.00" routeLength="2.45" waitSteps="0" rerouteNo="0" devices="tripinfo_t105_0" vtype="DEFAULT_VEHTYPE" vaporized=""/>
    <tripinfo id="t56_0" depart="56.00" departLane="27to28_0" departPos="7.60" departSpeed="0.00" departDelay="0.00" arrival="121.00" arrivalLane="12to04_0" arrivalPos="4.52" arrivalSpeed="13.12" duration="65.00" routeLength="754.01" waitSteps="0" rerouteNo="0" devices="tripinfo_t56_0" vtype="DEFAULT_VEHTYPE" vaporized=""/>
    <tripinfo id="t69_0" depart="69.00" departLane="06to07_0" departPos="7.60" departSpeed="0.00" departDelay="0.00" arrival="123.00" arrivalLane="08to16_0" arrivalPos="6.29" arrivalSpeed="8.29" duration="54.00" routeLength="589.33" waitSteps="0" rerouteNo="0" devices="tripinfo_t69_0" vtype="DEFAULT_VEHTYPE" vaporized=""/>
    <tripinfo id="t20_0" depart="20.00" departLane="03to04_0" departPos="7.60" departSpeed="0.00" departDelay="0.00" arrival="128.00" arrivalLane="14to22_0" arrivalPos="6.65" arrivalSpeed="9.01" duration="108.00" routeLength="1281.69" waitSteps="0" rerouteNo="0" devices="tripinfo_t20_0" vtype="DEFAULT_VEHTYPE" vaporized=""/>
    <tripinfo id="t17_0" depart="17.00" departLane="29to04_0" departPos="7.60" departSpeed="0.00" departDelay="0.00" arrival="138.00" arrivalLane="31to32_0" arrivalPos="3.38" arrivalSpeed="7.65" duration="121.00" routeLength="1279.56" waitSteps="4" rerouteNo="0" devices="tripinfo_t17_0" vtype="DEFAULT_VEHTYPE" vaporized=""/>
    <tripinfo id="t3_0" depart="3.00" departLane="19to20_0" departPos="7.60" departSpeed="0.00" departDelay="0.00" arrival="143.00" arrivalLane="15to16_0" arrivalPos="11.37" arrivalSpeed="11.87" duration="140.00" routeLength="1581.77" waitSteps="0" rerouteNo="0" devices="tripinfo_t3_0" vtype="DEFAULT_VEHTYPE" vaporized=""/>
    <tripinfo id="t26_0" depart="26.00" departLane="27to19_0" departPos="7.60" departSpeed="0.00" departDelay="0.00" arrival="146.00" arrivalLane="17to09_1" arrivalPos="3.10" arrivalSpeed="9.20" duration="120.00" routeLength="1049.01" waitSteps="21" rerouteNo="0" devices="tripinfo_t26_0" vtype="DEFAULT_VEHTYPE" vaporized=""/>
    <tripinfo id="t9_0" depart="9.00" departLane="01to02_0" departPos="7.60" departSpeed="0.00" departDelay="0.00" arrival="148.00" arrivalLane="22to30_0" arrivalPos="12.48" arrivalSpeed="13.18" duration="139.00" routeLength="1646.62" waitSteps="0" rerouteNo="0" devices="tripinfo_t9_0" vtype="DEFAULT_VEHTYPE" vaporized=""/>
    <tripinfo id="t0_0" depart="0.00" departLane="15to14_0" departPos="7.60" departSpeed="0.00" departDelay="0.00" arrival="154.00" arrivalLane="11to19_0" arrivalPos="5.19" arrivalSpeed="7.47" duration="154.00" routeLength="1807.13" waitSteps="0" rerouteNo="0" devices="tripinfo_t0_0" vtype="DEFAULT_VEHTYPE" vaporized=""/>
    <tripinfo id="t19_0" depart="19.00" departLane="25to26_0" departPos="7.60" departSpeed="0.00" departDelay="0.00" arrival="155.00" arrivalLane="19to27_1" arrivalPos="4.79" arrivalSpeed="8.88" duration="136.00" routeLength="1289.93" waitSteps="11" rerouteNo="0" devices="tripinfo_t19_0" vtype="DEFAULT_VEHTYPE" vaporized=""/>
    <tripinfo id="t59_0" depart="59.00" departLane="22to21_0" departPos="7.60" departSpeed="0.00" departDelay="0.00" arrival="160.00" arrivalLane="03to02_0" arrivalPos="10.06" arrivalSpeed="13.41" duration="101.00" routeLength="1053.56" waitSteps="3" rerouteNo="0" devices="tripinfo_t59_0" vtype="DEFAULT_VEHTYPE" vaporized=""/>
    <tripinfo id="t55_0" depart="55.00" departLane="19to11_0" departPos="7.60" departSpeed="0.00" departDelay="0.00" arrival="161.00" arrivalLane="29to30_0" arrivalPos="10.09" arrivalSpeed="13.61" duration="106.00" routeLength="1222.45" waitSteps="0" rerouteNo="0" devices="tripinfo_t55_0" vtype="DEFAULT_VEHTYPE" vaporized=""/>
    <tripinfo id="t11_0" depart="11.00" departLane="30to29_0" departPos="7.60" departSpeed="0.00" departDelay="0.00" arrival="165.00" arrivalLane="23to15_1" arrivalPos="2.05" arrivalSpeed="9.03" duration="154.00" routeLength="1111.95" waitSteps="45" rerouteNo="0" devices="tripinfo_t11_0" vtype="DEFAULT_VEHTYPE" vaporized=""/>
    <tripinfo id="t31_0" depart="31.00" departLane="21to29_0" departPos="7.60" departSpeed="0.00" departDelay="0.00" arrival="166.00" arrivalLane="09to01_1" arrivalPos="0.20" arrivalSpeed="7.34" duration="135.00" routeLength="1570.64" waitSteps="0" rerouteNo="0" devices="tripinfo_t31_0" vtype="DEFAULT_VEHTYPE" vaporized=""/>
    <tripinfo id="t64_0" depart="64.00" departLane="06to14_0" departPos="7.60" departSpeed="0.00" departDelay="0.00" arrival="166.00" arrivalLane="16to24_0" arrivalPos="1.11" arrivalSpeed="5.35" duration="102.00" routeLength="1047.10" waitSteps="3" rerouteNo="0" devices="tripinfo_t64_0" vtype="DEFAULT_VEHTYPE" vaporized=""/>
    <tripinfo id="t16_0" depart="16.00" departLane="19to11_0" departPos="7.60" departSpeed="0.00" departDelay="0.00" arrival="169.00" arrivalLane="06to27_1" arrivalPos="1.63" arrivalSpeed="6.44" duration="153.00" routeLength="1739.54" waitSteps="0" rerouteNo="0" devices="tripinfo_t16_0" vtype="DEFAULT_VEHTYPE" vaporized=""/>
    <tripinfo id="t80_0" depart="80.00" departLane="11to03_0" departPos="7.60" departSpeed="0.00" departDelay="0.00" arrival="171.00" arrivalLane="29to21_0" arrivalPos="5.54" arrivalSpeed="13.48" duration="91.00" routeLength="986.36" waitSteps="2" rerouteNo="0" devices="tripinfo_t80_0" vtype="DEFAULT_VEHTYPE" vaporized=""/>
    <tripinfo id="t72_0" depart="72.00" departLane="07to06_0" departPos="7.60" departSpeed="0.00" departDelay="0.00" arrival="171.00" arrivalLane="05to28_0" arrivalPos="5.27" arrivalSpeed="7.99" duration="99.00" routeLength="588.31" waitSteps="36" rerouteNo="0" devices="tripinfo_t72_0" vtype="DEFAULT_VEHTYPE" vaporized=""/>
    <tripinfo id="t151_0" depart="151.00" departLane="26to25_0" departPos="7.60" departSpeed="0.00" departDelay="0.00" arrival="179.00" arrivalLane="25to08_0" arrivalPos="1.90" arrivalSpeed="6.00" duration="28.00" routeLength="289.66" waitSteps="0" rerouteNo="0" devices="tripinfo_t151_0" vtype="DEFAULT_VEHTYPE" vaporized=""/>
    <tripinfo id="t50_0" depart="50.00" departLane="30to03_0" departPos="7.60" departSpeed="0.00" departDelay="0.00" arrival="181.00" arrivalLane="19to20_0" arrivalPos="0.03" arrivalSpeed="3.72" duration="131.00" routeLength="1381.04" waitSteps="12" rerouteNo="0" devices="tripinfo_t50_0" vtype="DEFAULT_VEHTYPE" vaporized=""/>
    <tripinfo id="t63_0" depart="63.00" departLane="07to06_0" departPos="7.60" departSpeed="0.00" departDelay="0.00" arrival="188.00" arrivalLane="13to21_0" arrivalPos="11.96" arrivalSpeed="12.94" duration="125.00" routeLength="825.23" waitSteps="42" rerouteNo="0" devices="tripinfo_t63_0" vtype="DEFAULT_VEHTYPE" vaporized=""/>
    <tripinfo id="t23_0" depart="23.00" departLane="03to11_0" departPos="7.60" departSpeed="0.00" departDelay="0.00" arrival="191.00" arrivalLane="23to15_1" arrivalPos="2.58" arrivalSpeed="8.83" duration="168.00" routeLength="2035.81" waitSteps="0" rerouteNo="0" devices="tripinfo_t23_0" vtype="DEFAULT_VEHTYPE" vaporized=""/>
    <tripinfo id="t95_0" depart="102.00" departLane="11to12_0" departPos="7.60" departSpeed="0.00" departDelay="7.00" arrival="193.00" arrivalLane="30to22_1" arrivalPos="3.10" arrivalSpeed="9.13" duration="91.00" routeLength="1049.22" waitSteps="0" rerouteNo="0" devices="tripinfo_t95_0" vtype="DEFAULT_VEHTYPE" vaporized=""/>
    <tripinfo id="t57_0" depart="57.00" departLane="11to10_0" departPos="7.60" departSpeed="0.00" departDelay="0.00" arrival="194.00" arrivalLane="18to17_0" arrivalPos="2.15" arrivalSpeed="8.41" duration="137.00" routeLength="991.97" waitSteps="47" rerouteNo="0" devices="tripinfo_t57_0" vtype="DEFAULT_VEHTYPE" vaporized=""/>
    <tripinfo id="t87_0" depart="87.00" departLane="22to21_0" departPos="7.60" departSpeed="0.00" departDelay="0.00" arrival="194.00" arrivalLane="27to06_0" arrivalPos="3.28" arrivalSpeed="6.60" duration="107.00" routeLength="1278.32" waitSteps="0" rerouteNo="0" devices="tripinfo_t87_0" vtype="DEFAULT_VEHTYPE" vaporized=""/>
    <tripinfo id="t21_0" depart="21.00" departLane="28to05_0" departPos="7.60" departSpeed="0.00" departDelay="0.00" arrival="196.00" arrivalLane="11to03_1" arrivalPos="3.00" arrivalSpeed="8.11" duration="175.00" routeLength="1673.41" waitSteps="28" rerouteNo="0" devices="tripinfo_t21_0" vtype="DEFAULT_VEHTYPE" vaporized=""/>
    <tripinfo id="t42_0" depart="42.00" departLane="06to27_0" departPos="7.60" departSpeed="0.00" departDelay="0.00" arrival="200.00" arrivalLane="11to19_0" arrivalPos="4.47" arrivalSpeed="7.62" duration="158.00" routeLength="1513.46" waitSteps="22" rerouteNo="0" devices="tripinfo_t42_0" vtype="DEFAULT_VEHTYPE" vaporized=""/>
    <tripinfo id="t36_0" depart="36.00" departLane="08to07_0" departPos="7.60" departSpeed="0.00" departDelay="0.00" arrival="200.00" arrivalLane="13to05_0" arrivalPos="7.17" arrivalSpeed="9.85" duration="164.00" routeLength="1349.71" waitSteps="40" rerouteNo="0" devices="tripinfo_t36_0" vtype="DEFAULT_VEHTYPE" vaporized=""/>
    <tripinfo id="t7_0" depart="7.00" departLane="14to13_0" departPos="7.60" departSpeed="0.00" departDelay="0.00" arrival="201.00" arrivalLane="17to09_1" arrivalPos="1.57" arrivalSpeed="8.18" duration="194.00" routeLength="1867.25" waitSteps="26" rerouteNo="0" devices="tripinfo_t7_0" vtype="DEFAULT_VEHTYPE" vaporized=""/>
    <tripinfo id="t32_0" depart="32.00" departLane="26to18_0" departPos="7.60" departSpeed="0.00" departDelay="0.00" arrival="201.00" arrivalLane="28to20_0" arrivalPos="3.39" arrivalSpeed="6.77" duration="169.00" routeLength="1752.67" waitSteps="16" rerouteNo="0" devices="tripinfo_t32_0" vtype="DEFAULT_VEHTYPE" vaporized=""/>
    <tripinfo id="t35_0" depart="35.00" departLane="15to14_0" departPos="7.60" departSpeed="0.00" departDelay="0.00" arrival="203.00" arrivalLane="11to19_0" arrivalPos="7.22" arrivalSpeed="8.46" duration="168.00" routeLength="1809.16" waitSteps="1" rerouteNo="0" devices="tripinfo_t35_0" vtype="DEFAULT_VEHTYPE" vaporized=""/>
    <tripinfo id="t86_0" depart="86.00" departLane="26to07_0" departPos="7.60" departSpeed="0.00" departDelay="0.00" arrival="209.00" arrivalLane="28to20_0" arrivalPos="0.07" arrivalSpeed="13.43" duration="123.00" routeLength="1515.40" waitSteps="0" rerouteNo="0" devices="tripinfo_t86_0" vtype="DEFAULT_VEHTYPE" vaporized=""/>
    <tripinfo id="t2_0" depart="2.00" departLane="02to01_0" departPos="7.60" departSpeed="0.00" departDelay="0.00" arrival="209.00" arrivalLane="04to12_0" arrivalPos="10.93" arrivalSpeed="13.84" duration="207.00" routeLength="2357.49" waitSteps="4" rerouteNo="0" devices="tripinfo_t2_0" vtype="DEFAULT_VEHTYPE" vaporized=""/>
    <tripinfo id="t29_0" depart="29.00" departLane="30to22_0" departPos="7.60" departSpeed="0.00" departDelay="0.00" arrival="211.00" arrivalLane="07to15_0" arrivalPos="5.16" arrivalSpeed="7.69" duration="182.00" routeLength="1681.49" waitSteps="29" rerouteNo="0" devices="tripinfo_t29_0" vtype="DEFAULT_VEHTYPE" vaporized=""/>
    <tripinfo id="t38_0" depart="38.00" departLane="06to05_0" departPos="7.60" departSpeed="0.00" departDelay="0.00" arrival="215.00" arrivalLane="07to08_0" arrivalPos="1.15" arrivalSpeed="8.55" duration="177.00" routeLength="1573.92" waitSteps="19" rerouteNo="0" devices="tripinfo_t38_0" vtype="DEFAULT_VEHTYPE" vaporized=""/>
    <tripinfo id="t113_0" depart="113.00" departLane="22to14_0" departPos="7.60" departSpeed="0.00" departDelay="0.00" arrival="216.00" arrivalLane="28to20_0" arrivalPos="9.96" arrivalSpeed="13.33" duration="103.00" routeLength="1222.32" waitSteps="0" rerouteNo="0" devices="tripinfo_t113_0" vtype="DEFAULT_VEHTYPE" vaporized=""/>
    <tripinfo id="t85_0" depart="90.00" departLane="12to11_0" departPos="7.60" departSpeed="0.00" departDelay="5.00" arrival="220.00" arrivalLane="30to22_1" arrivalPos="12.03" arrivalSpeed="13.29" duration="130.00" routeLength="1226.80" waitSteps="21" rerouteNo="0" devices="tripinfo_t85_0" vtype="DEFAULT_VEHTYPE" vaporized=""/>
    <tripinfo id="t81_0" depart="81.00" departLane="04to03_0" departPos="7.60" departSpeed="0.00" departDelay="0.00" arrival="221.00" arrivalLane="20to19_0" arrivalPos="7.64" arrivalSpeed="9.08" duration="140.00" routeLength="1285.09" waitSteps="25" rerouteNo="0" devices="tripinfo_t81_0" vtype="DEFAULT_VEHTYPE" vaporized=""/>
    <tripinfo id="t99_0" depart="100.00" departLane="18to19_0" departPos="7.60" departSpeed="0.00" departDelay="1.00" arrival="224.00" arrivalLane="28to20_0" arrivalPos="3.09" arrivalSpeed="7.64" duration="124.00" routeLength="1050.31" waitSteps="20" rerouteNo="0" devices="tripinfo_t99_0" vtype="DEFAULT_VEHTYPE" vaporized=""/>
    <tripinfo id="t34_0" depart="35.00" departLane="02to03_0" departPos="7.60" departSpeed="0.00" departDelay="1.00" arrival="228.00" arrivalLane="15to16_0" arrivalPos="4.12" arrivalSpeed="8.25" duration="193.00" routeLength="1869.84" waitSteps="32" rerouteNo="0" devices="tripinfo_t34_0" vtype="DEFAULT_VEHTYPE" vaporized=""/>
    <tripinfo id="t30_0" depart="30.00" departLane="23to22_0" departPos="7.60" departSpeed="0.00" departDelay="0.00" arrival="228.00" arrivalLane="26to25_0" arrivalPos="1.37" arrivalSpeed="7.09" duration="198.00" routeLength="1867.09" waitSteps="37" rerouteNo="0" devices="tripinfo_t30_0" vtype="DEFAULT_VEHTYPE" vaporized=""/>
    <tripinfo id="t78_0" depart="78.00" departLane="28to05_0" departPos="7.60" departSpeed="0.00" departDelay="0.00" arrival="228.00" arrivalLane="07to06_0" arrivalPos="0.93" arrivalSpeed="8.69" duration="150.00" routeLength="1747.84" waitSteps="0" rerouteNo="0" devices="tripinfo_t78_0" vtype="DEFAULT_VEHTYPE" vaporized=""/>
    <tripinfo id="t41_0" depart="41.00" departLane="31to30_0" departPos="7.60" departSpeed="0.00" departDelay="0.00" arrival="228.00" arrivalLane="19to11_1" arrivalPos="0.62" arrivalSpeed="6.92" duration="187.00" routeLength="1571.02" waitSteps="44" rerouteNo="0" devices="tripinfo_t41_0" vtype="DEFAULT_VEHTYPE" vaporized=""/>
    <tripinfo id="t82_0" depart="82.00" departLane="32to24_0" departPos="7.60" departSpeed="0.00" departDelay="0.00" arrival="229.00" arrivalLane="16to08_0" arrivalPos="4.29" arrivalSpeed="13.77" duration="147.00" routeLength="1879.21" waitSteps="0" rerouteNo="0" devices="tripinfo_t82_0" vtype="DEFAULT_VEHTYPE" vaporized=""/>
    <tripinfo id="t100_0" depart="100.00" departLane="26to25_0" departPos="7.60" departSpeed="0.00" departDelay="0.00" arrival="232.00" arrivalLane="07to06_0" arrivalPos="1.02" arrivalSpeed="7.32" duration="132.00" routeLength="1525.36" waitSteps="4" rerouteNo="0" devices="tripinfo_t100_0" vtype="DEFAULT_VEHTYPE" vaporized=""/>
    <tripinfo id="t111_0" depart="111.00" departLane="07to06_0" departPos="7.60" departSpeed="0.00" departDelay="0.00" arrival="233.00" arrivalLane="28to05_1" arrivalPos="0.31" arrivalSpeed="6.19" duration="122.00" routeLength="1047.53" waitSteps="6" rerouteNo="0" devices="tripinfo_t111_0" vtype="DEFAULT_VEHTYPE" vaporized=""/>
    <tripinfo id="t88_0" depart="88.00" departLane="17to09_0" departPos="7.60" departSpeed="0.00" departDelay="0.00" arrival="237.00" arrivalLane="01to02_0" arrivalPos="1.96" arrivalSpeed="8.78" duration="149.00" routeLength="1876.88" waitSteps="0" rerouteNo="0" devices="tripinfo_t88_0" vtype="DEFAULT_VEHTYPE" vaporized=""/>
    <tripinfo id="t40_0" depart="40.00" departLane="12to11_0" departPos="7.60" departSpeed="0.00" departDelay="0.00" arrival="237.00" arrivalLane="24to16_1" arrivalPos="7.52" arrivalSpeed="10.93" duration="197.00" routeLength="2275.80" waitSteps="0" rerouteNo="0" devices="tripinfo_t40_0" vtype="DEFAULT_VEHTYPE" vaporized=""/>
    <tripinfo id="t66_0" depart="66.00" departLane="25to26_0" departPos="7.60" departSpeed="0.00" departDelay="0.00" arrival="238.00" arrivalLane="14to22_0" arrivalPos="10.33" arrivalSpeed="13.31" duration="172.00" routeLength="1519.19" waitSteps="41" rerouteNo="0" devices="tripinfo_t66_0" vtype="DEFAULT_VEHTYPE" vaporized=""/>
    <tripinfo id="t27_0" depart="27.00" departLane="32to24_0" departPos="7.60" departSpeed="0.00" departDelay="0.00" arrival="241.00" arrivalLane="02to01_0" arrivalPos="3.92" arrivalSpeed="8.85" duration="214.00" routeLength="2637.02" waitSteps="0" rerouteNo="0" devices="tripinfo_t27_0" vtype="DEFAULT_VEHTYPE" vaporized=""/>
    <tripinfo id="t147_0" depart="148.00" departLane="30to22_0" departPos="7.60" departSpeed="0.00" departDelay="1.00" arrival="242.00" arrivalLane="24to16_1" arrivalPos="8.41" arrivalSpeed="9.38" duration="94.00" routeLength="1054.32" waitSteps="0" rerouteNo="0" devices="tripinfo_t147_0" vtype="DEFAULT_VEHTYPE" vaporized=""/>
    <tripinfo id="t15_0" depart="15.00" departLane="25to17_0" departPos="7.60" departSpeed="0.00" departDelay="0.00" arrival="243.00" arrivalLane="29to30_0" arrivalPos="11.78" arrivalSpeed="13.26" duration="228.00" routeLength="2522.09" waitSteps="0" rerouteNo="0" devices="tripinfo_t15_0" vtype="DEFAULT_VEHTYPE" vaporized=""/>
    <tripinfo id="t54_0" depart="54.00" departLane="05to06_0" departPos="7.60" departSpeed="0.00" departDelay="0.00" arrival="244.00" arrivalLane="15to07_1" arrivalPos="6.44" arrivalSpeed="7.37" duration="190.00" routeLength="1052.39" waitSteps="81" rerouteNo="0" devices="tripinfo_t54_0" vtype="DEFAULT_VEHTYPE" vaporized=""/>
    <tripinfo id="t4_0" depart="4.00" departLane="02to31_0" departPos="7.60" departSpeed="0.00" departDelay="0.00" arrival="246.00" arrivalLane="15to23_0" arrivalPos="1.14" arrivalSpeed="7.68" duration="242.00" routeLength="2212.06" waitSteps="47" rerouteNo="0" devices="tripinfo_t4_0" vtype="DEFAULT_VEHTYPE" vaporized=""/>
    <tripinfo id="t96_0" depart="96.00" departLane="04to03_0" departPos="7.60" departSpeed="0.00" departDelay="0.00" arrival="247.00" arrivalLane="13to05_0" arrivalPos="2.70" arrivalSpeed="13.02" duration="151.00" routeLength="1510.38" waitSteps="11" rerouteNo="0" devices="tripinfo_t96_0" vtype="DEFAULT_VEHTYPE" vaporized=""/>
    <tripinfo id="t146_0" depart="146.00" departLane="17to09_0" departPos="7.60" departSpeed="0.00" departDelay="0.00" arrival="252.00" arrivalLane="10to11_0" arrivalPos="3.31" arrivalSpeed="13.62" duration="106.00" routeLength="1232.33" waitSteps="1" rerouteNo="0" devices="tripinfo_t146_0" vtype="DEFAULT_VEHTYPE" vaporized=""/>
    <tripinfo id="t73_0" depart="73.00" departLane="13to14_0" departPos="7.60" departSpeed="0.00" departDelay="0.00" arrival="254.00" arrivalLane="21to22_0" arrivalPos="7.27" arrivalSpeed="7.43" duration="181.00" routeLength="1514.95" waitSteps="36" rerouteNo="0" devices="tripinfo_t73_0" vtype="DEFAULT_VEHTYPE" vaporized=""/>
    <tripinfo id="t25_0" depart="26.00" departLane="03to11_0" departPos="7.60" departSpeed="0.00" departDelay="1.00" arrival="254.00" arrivalLane="23to15_1" arrivalPos="8.20" arrivalSpeed="10.58" duration="228.00" routeLength="2041.43" waitSteps="53" rerouteNo="0" devices="tripinfo_t25_0" vtype="DEFAULT_VEHTYPE" vaporized=""/>
    <tripinfo id="t8_0" depart="8.00" departLane="06to27_0" departPos="7.60" departSpeed="0.00" departDelay="0.00" arrival="254.00" arrivalLane="32to24_1" arrivalPos="9.23" arrivalSpeed="11.78" duration="246.00" routeLength="2569.40" waitSteps="23" rerouteNo="0" devices="tripinfo_t8_0" vtype="DEFAULT_VEHTYPE" vaporized=""/>
    <tripinfo id="t53_0" depart="53.00" departLane="14to06_0" departPos="7.60" departSpeed="0.00" departDelay="0.00" arrival="255.00" arrivalLane="02to01_0" arrivalPos="0.96" arrivalSpeed="8.54" duration="202.00" routeLength="2263.11" waitSteps="5" rerouteNo="0" devices="tripinfo_t53_0" vtype="DEFAULT_VEHTYPE" vaporized=""/>
    <tripinfo id="t43_0" depart="43.00" departLane="16to08_0" departPos="7.60" departSpeed="0.00" departDelay="0.00" arrival="256.00" arrivalLane="18to17_0" arrivalPos="11.60" arrivalSpeed="13.29" duration="213.00" routeLength="2644.70" waitSteps="0" rerouteNo="0" devices="tripinfo_t43_0" vtype="DEFAULT_VEHTYPE" vaporized=""/>
    <tripinfo id="t33_0" depart="33.00" departLane="10to11_0" departPos="7.60" departSpeed="0.00" departDelay="0.00" arrival="257.00" arrivalLane="23to15_1" arrivalPos="3.22" arrivalSpeed="9.40" duration="224.00" routeLength="1868.94" waitSteps="53" rerouteNo="0" devices="tripinfo_t33_0" vtype="DEFAULT_VEHTYPE" vaporized=""/>
    <tripinfo id="t39_0" depart="39.00" departLane="25to08_0" departPos="7.60" departSpeed="0.00" departDelay="0.00" arrival="259.00" arrivalLane="04to12_0" arrivalPos="2.75" arrivalSpeed="13.07" duration="220.00" routeLength="2743.29" waitSteps="0" rerouteNo="0" devices="tripinfo_t39_0" vtype="DEFAULT_VEHTYPE" vaporized=""/>
    <tripinfo id="t125_0" depart="125.00" departLane="27to28_0" departPos="7.60" departSpeed="0.00" departDelay="0.00" arrival="261.00" arrivalLane="02to31_1" arrivalPos="4.00" arrivalSpeed="8.93" duration="136.00" routeLength="1574.36" waitSteps="0" rerouteNo="0" devices="tripinfo_t125_0" vtype="DEFAULT_VEHTYPE" vaporized=""/>
    <tripinfo id="t46_0" depart="46.00" departLane="06to07_0" departPos="7.60" departSpeed="0.00" departDelay="0.00" arrival="261.00" arrivalLane="03to30_1" arrivalPos="1.56" arrivalSpeed="8.82" duration="215.00" routeLength="2569.34" waitSteps="0" rerouteNo="0" devices="tripinfo_t46_0" vtype="DEFAULT_VEHTYPE" vaporized=""/>
    <tripinfo id="t76_0" depart="76.00" departLane="10to11_0" departPos="7.60" departSpeed="0.00" departDelay="0.00" arrival="262.00" arrivalLane="29to04_1" arrivalPos="4.96" arrivalSpeed="6.93" duration="186.00" routeLength="1515.09" waitSteps="42" rerouteNo="0" devices="tripinfo_t76_0" vtype="DEFAULT_VEHTYPE" vaporized=""/>
    <tripinfo id="t79_0" depart="79.00" departLane="12to20_0" departPos="7.60" departSpeed="0.00" departDelay="0.00" arrival="262.00" arrivalLane="09to01_1" arrivalPos="4.30" arrivalSpeed="9.25" duration="183.00" routeLength="1575.84" waitSteps="21" rerouteNo="0" devices="tripinfo_t79_0" vtype="DEFAULT_VEHTYPE" vaporized=""/>
    <tripinfo id="t121_0" depart="121.00" departLane="03to11_0" departPos="7.60" departSpeed="0.00" departDelay="0.00" arrival="263.00" arrivalLane="11to03_1" arrivalPos="2.14" arrivalSpeed="9.02" duration="142.00" routeLength="1742.46" waitSteps="0" rerouteNo="1" devices="tripinfo_t121_0" vtype="DEFAULT_VEHTYPE" vaporized=""/>
    <tripinfo id="t167_0" depart="181.00" departLane="11to12_0" departPos="7.60" departSpeed="0.00" departDelay="14.00" arrival="263.00" arrivalLane="03to30_1" arrivalPos="2.86" arrivalSpeed="13.39" duration="82.00" routeLength="817.44" waitSteps="8" rerouteNo="0" devices="tripinfo_t167_0" vtype="DEFAULT_VEHTYPE" vaporized=""/>
    <tripinfo id="t24_0" depart="24.00" departLane="27to26_0" departPos="7.60" departSpeed="0.00" departDelay="0.00" arrival="266.00" arrivalLane="30to22_1" arrivalPos="0.45" arrivalSpeed="7.78" duration="242.00" routeLength="2568.23" waitSteps="4" rerouteNo="0" devices="tripinfo_t24_0" vtype="DEFAULT_VEHTYPE" vaporized=""/>
    <tripinfo id="t93_0" depart="93.00" departLane="27to19_0" departPos="7.60" departSpeed="0.00" departDelay="0.00" arrival="268.00" arrivalLane="07to08_0" arrivalPos="6.89" arrivalSpeed="7.55" duration="175.00" routeLength="1808.58" waitSteps="0" rerouteNo="0" devices="tripinfo_t93_0" vtype="DEFAULT_VEHTYPE" vaporized=""/>
    <tripinfo id="t97_0" depart="97.00" departLane="03to02_0" departPos="7.60" departSpeed="0.00" departDelay="0.00" arrival="271.00" arrivalLane="19to20_0" arrivalPos="1.26" arrivalSpeed="4.23" duration="174.00" routeLength="1749.27" waitSteps="20" rerouteNo="0" devices="tripinfo_t97_0" vtype="DEFAULT_VEHTYPE" vaporized=""/>
    <tripinfo id="t92_0" depart="92.00" departLane="26to18_0" departPos="7.60" departSpeed="0.00" departDelay="0.00" arrival="272.00" arrivalLane="06to14_1" arrivalPos="0.51" arrivalSpeed="6.76" duration="180.00" routeLength="1916.03" waitSteps="19" rerouteNo="0" devices="tripinfo_t92_0" vtype="DEFAULT_VEHTYPE" vaporized=""/>
    <tripinfo id="t58_0" depart="61.00" departLane="14to13_0" departPos="7.60" departSpeed="0.00" departDelay="3.00" arrival="272.00" arrivalLane="31to30_0" arrivalPos="4.28" arrivalSpeed="5.22" duration="211.00" routeLength="1816.24" waitSteps="43" rerouteNo="0" devices="tripinfo_t58_0" vtype="DEFAULT_VEHTYPE" vaporized=""/>
    <tripinfo id="t153_0" depart="156.00" departLane="03to04_0" departPos="7.60" departSpeed="0.00" departDelay="3.00" arrival="273.00" arrivalLane="03to11_1" arrivalPos="8.79" arrivalSpeed="8.82" duration="117.00" routeLength="1286.24" waitSteps="3" rerouteNo="0" devices="tripinfo_t153_0" vtype="DEFAULT_VEHTYPE" vaporized=""/>
    <tripinfo id="t183_0" depart="183.00" departLane="24to23_0" departPos="7.60" departSpeed="0.00" departDelay="0.00" arrival="274.00" arrivalLane="31to30_0" arrivalPos="5.16" arrivalSpeed="11.37" duration="91.00" routeLength="994.94" waitSteps="4" rerouteNo="0" devices="tripinfo_t183_0" vtype="DEFAULT_VEHTYPE" vaporized=""/>
    <tripinfo id="t45_0" depart="45.00" departLane="05to13_0" departPos="7.60" departSpeed="0.00" departDelay="0.00" arrival="275.00" arrivalLane="26to27_0" arrivalPos="4.40" arrivalSpeed="5.98" duration="230.00" routeLength="1983.91" waitSteps="49" rerouteNo="0" devices="tripinfo_t45_0" vtype="DEFAULT_VEHTYPE" vaporized=""/>
    <tripinfo id="t109_0" depart="109.00" departLane="25to08_0" departPos="7.60" departSpeed="0.00" departDelay="0.00" arrival="277.00" arrivalLane="15to16_0" arrivalPos="0.77" arrivalSpeed="7.52" duration="168.00" routeLength="1931.81" waitSteps="6" rerouteNo="0" devices="tripinfo_t109_0" vtype="DEFAULT_VEHTYPE" vaporized=""/>
    <tripinfo id="t44_0" depart="44.00" departLane="25to26_0" departPos="7.60" departSpeed="0.00" departDelay="0.00" arrival="278.00" arrivalLane="24to23_0" arrivalPos="0.77" arrivalSpeed="13.57" duration="234.00" routeLength="2929.27" waitSteps="0" rerouteNo="0" devices="tripinfo_t44_0" vtype="DEFAULT_VEHTYPE" vaporized=""/>
    <tripinfo id="t106_0" depart="106.00" departLane="02to01_0" departPos="7.60" departSpeed="0.00" departDelay="0.00" arrival="278.00" arrivalLane="17to25_0" arrivalPos="6.43" arrivalSpeed="13.82" duration="172.00" routeLength="2176.67" waitSteps="0" rerouteNo="0" devices="tripinfo_t106_0" vtype="DEFAULT_VEHTYPE" vaporized=""/>
    <tripinfo id="t101_0" depart="109.00" departLane="29to21_0" departPos="7.60" departSpeed="0.00" departDelay="8.00" arrival="279.00" arrivalLane="11to12_0" arrivalPos="3.54" arrivalSpeed="7.69" duration="170.00" routeLength="1905.28" waitSteps="2" rerouteNo="0" devices="tripinfo_t101_0" vtype="DEFAULT_VEHTYPE" vaporized=""/>
    <tripinfo id="t28_0" depart="28.00" departLane="08to16_0" departPos="7.60" departSpeed="0.00" departDelay="0.00" arrival="279.00" arrivalLane="31to32_0" arrivalPos="0.98" arrivalSpeed="6.56" duration="251.00" routeLength="2634.12" waitSteps="25" rerouteNo="0" devices="tripinfo_t28_0" vtype="DEFAULT_VEHTYPE" vaporized=""/>
    <tripinfo id="t215_0" depart="215.00" departLane="31to30_0" departPos="7.60" departSpeed="0.00" departDelay="0.00" arrival="280.00" arrivalLane="03to04_0" arrivalPos="13.12" arrivalSpeed="13.63" duration="65.00" routeLength="763.75" waitSteps="0" rerouteNo="0" devices="tripinfo_t215_0" vtype="DEFAULT_VEHTYPE" vaporized=""/>