<?xml version="1.0"?>

<!-- generated on Wed 31 Aug 2011 07:23:39 PM WEST by SUMO gui Version 0.12.2
<?xml version="1.0" encoding="iso-8859-1"?>

<configuration xmlns:xsi="http://www.w3.org/2001/XMLSchema-instance" xsi:noNamespaceSchemaLocation="http://sumo.sf.net/xsd/sumo-gui.exeConfiguration.xsd">

    <input>
        <net-file value="../simulations/coimbra/coimbra.net.xml"/>
        <route-files value="../simulations/coimbra/coimbra.rou.xml"/>
    </input>

    <output>
        <tripinfo-output value="../simulations/coimbra/coimbra.out.tripinfo.xml"/>
    </output>

    <time>
        <end value="1"/>
    </time>

    <traci_server>
        <remote-port value="8814"/>
    </traci_server>

    <gui_only>
        <gui-settings-file value=""/>
    </gui_only>

</configuration>
-->

<tripinfos>
</tripinfos>
