<?xml version="1.0"?>

<!-- generated on 29-11-2011 15:40:21 by SUMO gui Version 0.12.2
<?xml version="1.0" encoding="iso-8859-1"?>

<configuration xmlns:xsi="http://www.w3.org/2001/XMLSchema-instance" xsi:noNamespaceSchemaLocation="http://sumo.sf.net/xsd/sumo-gui.exeConfiguration.xsd">

    <input>
        <net-file value="../simulations/lattice/lattice.net.xml"/>
        <route-files value="../simulations/lattice/lattice.rou0.xml"/>
    </input>

    <output>
        <tripinfo-output value="../simulations/lattice/lattice.out.tripinfo.xml"/>
    </output>

    <time>
        <end value="1"/>
    </time>

    <traci_server>
        <remote-port value="8814"/>
    </traci_server>

    <gui_only>
        <gui-settings-file value=""/>
    </gui_only>

</configuration>
-->

<tripinfos>
    <tripinfo id="t21_0" depart="21.00" departLane="10to09_0" departPos="7.60" departSpeed="0.00" departDelay="0.00" arrival="64.00" arrivalLane="09to03_0" arrivalPos="0.55" arrivalSpeed="6.14" duration="43.00" routeLength="483.45" waitSteps="0" rerouteNo="0" devices="tripinfo_t21_0" vtype="DEFAULT_VEHTYPE" vaporized=""/>
</tripinfos>
